# vtk DataFile Version 3.0
iRIC output t = 0
ASCII
DATASET STRUCTURED_GRID
DIMENSIONS 401 21 1
POINTS 8421 double
0 -5 0 0.5 -5 0 1 -5 0
1.5 -5 0 2 -5 0 2.5 -5 0
3 -5 0 3.5 -5 0 4 -5 0
4.5 -5 0 5 -5 0 5.5 -5 0
6 -5 0 6.5 -5 0 7 -5 0
7.5 -5 0 8 -5 0 8.5 -5 0
9 -5 0 9.5 -5 0 10 -5 0
10.5 -5 0 11 -5 0 11.5 -5 0
12 -5 0 12.5 -5 0 13 -5 0
13.5 -5 0 14 -5 0 14.5 -5 0
15 -5 0 15.5 -5 0 16 -5 0
16.5 -5 0 17 -5 0 17.5 -5 0
18 -5 0 18.5 -5 0 19 -5 0
19.5 -5 0 20 -5 0 20.5 -5 0
21 -5 0 21.5 -5 0 22 -5 0
22.5 -5 0 23 -5 0 23.5 -5 0
24 -5 0 24.5 -5 0 25 -5 0
25.5 -5 0 26 -5 0 26.5 -5 0
27 -5 0 27.5 -5 0 28 -5 0
28.5 -5 0 29 -5 0 29.5 -5 0
30 -5 0 30.5 -5 0 31 -5 0
31.5 -5 0 32 -5 0 32.5 -5 0
33 -5 0 33.5 -5 0 34 -5 0
34.5 -5 0 35 -5 0 35.5 -5 0
36 -5 0 36.5 -5 0 37 -5 0
37.5 -5 0 38 -5 0 38.5 -5 0
39 -5 0 39.5 -5 0 40 -5 0
40.5 -5 0 41 -5 0 41.5 -5 0
42 -5 0 42.5 -5 0 43 -5 0
43.5 -5 0 44 -5 0 44.5 -5 0
45 -5 0 45.5 -5 0 46 -5 0
46.5 -5 0 47 -5 0 47.5 -5 0
48 -5 0 48.5 -5 0 49 -5 0
49.5 -5 0 50 -5 0 50.5 -5 0
51 -5 0 51.5 -5 0 52 -5 0
52.5 -5 0 53 -5 0 53.5 -5 0
54 -5 0 54.5 -5 0 55 -5 0
55.5 -5 0 56 -5 0 56.5 -5 0
57 -5 0 57.5 -5 0 58 -5 0
58.5 -5 0 59 -5 0 59.5 -5 0
60 -5 0 60.5 -5 0 61 -5 0
61.5 -5 0 62 -5 0 62.5 -5 0
63 -5 0 63.5 -5 0 64 -5 0
64.5 -5 0 65 -5 0 65.5 -5 0
66 -5 0 66.5 -5 0 67 -5 0
67.5 -5 0 68 -5 0 68.5 -5 0
69 -5 0 69.5 -5 0 70 -5 0
70.5 -5 0 71 -5 0 71.5 -5 0
72 -5 0 72.5 -5 0 73 -5 0
73.5 -5 0 74 -5 0 74.5 -5 0
75 -5 0 75.5 -5 0 76 -5 0
76.5 -5 0 77 -5 0 77.5 -5 0
78 -5 0 78.5 -5 0 79 -5 0
79.5 -5 0 80 -5 0 80.5 -5 0
81 -5 0 81.5 -5 0 82 -5 0
82.5 -5 0 83 -5 0 83.5 -5 0
84 -5 0 84.5 -5 0 85 -5 0
85.5 -5 0 86 -5 0 86.5 -5 0
87 -5 0 87.5 -5 0 88 -5 0
88.5 -5 0 89 -5 0 89.5 -5 0
90 -5 0 90.5 -5 0 91 -5 0
91.5 -5 0 92 -5 0 92.5 -5 0
93 -5 0 93.5 -5 0 94 -5 0
94.5 -5 0 95 -5 0 95.5 -5 0
96 -5 0 96.5 -5 0 97 -5 0
97.5 -5 0 98 -5 0 98.5 -5 0
99 -5 0 99.5 -5 0 100 -5 0
100.5 -5 0 101 -5 0 101.5 -5 0
102 -5 0 102.5 -5 0 103 -5 0
103.5 -5 0 104 -5 0 104.5 -5 0
105 -5 0 105.5 -5 0 106 -5 0
106.5 -5 0 107 -5 0 107.5 -5 0
108 -5 0 108.5 -5 0 109 -5 0
109.5 -5 0 110 -5 0 110.5 -5 0
111 -5 0 111.5 -5 0 112 -5 0
112.5 -5 0 113 -5 0 113.5 -5 0
114 -5 0 114.5 -5 0 115 -5 0
115.5 -5 0 116 -5 0 116.5 -5 0
117 -5 0 117.5 -5 0 118 -5 0
118.5 -5 0 119 -5 0 119.5 -5 0
120 -5 0 120.5 -5 0 121 -5 0
121.5 -5 0 122 -5 0 122.5 -5 0
123 -5 0 123.5 -5 0 124 -5 0
124.5 -5 0 125 -5 0 125.5 -5 0
126 -5 0 126.5 -5 0 127 -5 0
127.5 -5 0 128 -5 0 128.5 -5 0
129 -5 0 129.5 -5 0 130 -5 0
130.5 -5 0 131 -5 0 131.5 -5 0
132 -5 0 132.5 -5 0 133 -5 0
133.5 -5 0 134 -5 0 134.5 -5 0
135 -5 0 135.5 -5 0 136 -5 0
136.5 -5 0 137 -5 0 137.5 -5 0
138 -5 0 138.5 -5 0 139 -5 0
139.5 -5 0 140 -5 0 140.5 -5 0
141 -5 0 141.5 -5 0 142 -5 0
142.5 -5 0 143 -5 0 143.5 -5 0
144 -5 0 144.5 -5 0 145 -5 0
145.5 -5 0 146 -5 0 146.5 -5 0
147 -5 0 147.5 -5 0 148 -5 0
148.5 -5 0 149 -5 0 149.5 -5 0
150 -5 0 150.5 -5 0 151 -5 0
151.5 -5 0 152 -5 0 152.5 -5 0
153 -5 0 153.5 -5 0 154 -5 0
154.5 -5 0 155 -5 0 155.5 -5 0
156 -5 0 156.5 -5 0 157 -5 0
157.5 -5 0 158 -5 0 158.5 -5 0
159 -5 0 159.5 -5 0 160 -5 0
160.5 -5 0 161 -5 0 161.5 -5 0
162 -5 0 162.5 -5 0 163 -5 0
163.5 -5 0 164 -5 0 164.5 -5 0
165 -5 0 165.5 -5 0 166 -5 0
166.5 -5 0 167 -5 0 167.5 -5 0
168 -5 0 168.5 -5 0 169 -5 0
169.5 -5 0 170 -5 0 170.5 -5 0
171 -5 0 171.5 -5 0 172 -5 0
172.5 -5 0 173 -5 0 173.5 -5 0
174 -5 0 174.5 -5 0 175 -5 0
175.5 -5 0 176 -5 0 176.5 -5 0
177 -5 0 177.5 -5 0 178 -5 0
178.5 -5 0 179 -5 0 179.5 -5 0
180 -5 0 180.5 -5 0 181 -5 0
181.5 -5 0 182 -5 0 182.5 -5 0
183 -5 0 183.5 -5 0 184 -5 0
184.5 -5 0 185 -5 0 185.5 -5 0
186 -5 0 186.5 -5 0 187 -5 0
187.5 -5 0 188 -5 0 188.5 -5 0
189 -5 0 189.5 -5 0 190 -5 0
190.5 -5 0 191 -5 0 191.5 -5 0
192 -5 0 192.5 -5 0 193 -5 0
193.5 -5 0 194 -5 0 194.5 -5 0
195 -5 0 195.5 -5 0 196 -5 0
196.5 -5 0 197 -5 0 197.5 -5 0
198 -5 0 198.5 -5 0 199 -5 0
199.5 -5 0 200 -5 0 0 -4.5 0
0.5 -4.5 0 1 -4.5 0 1.5 -4.5 0
2 -4.5 0 2.5 -4.5 0 3 -4.5 0
3.5 -4.5 0 4 -4.5 0 4.5 -4.5 0
5 -4.5 0 5.5 -4.5 0 6 -4.5 0
6.5 -4.5 0 7 -4.5 0 7.5 -4.5 0
8 -4.5 0 8.5 -4.5 0 9 -4.5 0
9.5 -4.5 0 10 -4.5 0 10.5 -4.5 0
11 -4.5 0 11.5 -4.5 0 12 -4.5 0
12.5 -4.5 0 13 -4.5 0 13.5 -4.5 0
14 -4.5 0 14.5 -4.5 0 15 -4.5 0
15.5 -4.5 0 16 -4.5 0 16.5 -4.5 0
17 -4.5 0 17.5 -4.5 0 18 -4.5 0
18.5 -4.5 0 19 -4.5 0 19.5 -4.5 0
20 -4.5 0 20.5 -4.5 0 21 -4.5 0
21.5 -4.5 0 22 -4.5 0 22.5 -4.5 0
23 -4.5 0 23.5 -4.5 0 24 -4.5 0
24.5 -4.5 0 25 -4.5 0 25.5 -4.5 0
26 -4.5 0 26.5 -4.5 0 27 -4.5 0
27.5 -4.5 0 28 -4.5 0 28.5 -4.5 0
29 -4.5 0 29.5 -4.5 0 30 -4.5 0
30.5 -4.5 0 31 -4.5 0 31.5 -4.5 0
32 -4.5 0 32.5 -4.5 0 33 -4.5 0
33.5 -4.5 0 34 -4.5 0 34.5 -4.5 0
35 -4.5 0 35.5 -4.5 0 36 -4.5 0
36.5 -4.5 0 37 -4.5 0 37.5 -4.5 0
38 -4.5 0 38.5 -4.5 0 39 -4.5 0
39.5 -4.5 0 40 -4.5 0 40.5 -4.5 0
41 -4.5 0 41.5 -4.5 0 42 -4.5 0
42.5 -4.5 0 43 -4.5 0 43.5 -4.5 0
44 -4.5 0 44.5 -4.5 0 45 -4.5 0
45.5 -4.5 0 46 -4.5 0 46.5 -4.5 0
47 -4.5 0 47.5 -4.5 0 48 -4.5 0
48.5 -4.5 0 49 -4.5 0 49.5 -4.5 0
50 -4.5 0 50.5 -4.5 0 51 -4.5 0
51.5 -4.5 0 52 -4.5 0 52.5 -4.5 0
53 -4.5 0 53.5 -4.5 0 54 -4.5 0
54.5 -4.5 0 55 -4.5 0 55.5 -4.5 0
56 -4.5 0 56.5 -4.5 0 57 -4.5 0
57.5 -4.5 0 58 -4.5 0 58.5 -4.5 0
59 -4.5 0 59.5 -4.5 0 60 -4.5 0
60.5 -4.5 0 61 -4.5 0 61.5 -4.5 0
62 -4.5 0 62.5 -4.5 0 63 -4.5 0
63.5 -4.5 0 64 -4.5 0 64.5 -4.5 0
65 -4.5 0 65.5 -4.5 0 66 -4.5 0
66.5 -4.5 0 67 -4.5 0 67.5 -4.5 0
68 -4.5 0 68.5 -4.5 0 69 -4.5 0
69.5 -4.5 0 70 -4.5 0 70.5 -4.5 0
71 -4.5 0 71.5 -4.5 0 72 -4.5 0
72.5 -4.5 0 73 -4.5 0 73.5 -4.5 0
74 -4.5 0 74.5 -4.5 0 75 -4.5 0
75.5 -4.5 0 76 -4.5 0 76.5 -4.5 0
77 -4.5 0 77.5 -4.5 0 78 -4.5 0
78.5 -4.5 0 79 -4.5 0 79.5 -4.5 0
80 -4.5 0 80.5 -4.5 0 81 -4.5 0
81.5 -4.5 0 82 -4.5 0 82.5 -4.5 0
83 -4.5 0 83.5 -4.5 0 84 -4.5 0
84.5 -4.5 0 85 -4.5 0 85.5 -4.5 0
86 -4.5 0 86.5 -4.5 0 87 -4.5 0
87.5 -4.5 0 88 -4.5 0 88.5 -4.5 0
89 -4.5 0 89.5 -4.5 0 90 -4.5 0
90.5 -4.5 0 91 -4.5 0 91.5 -4.5 0
92 -4.5 0 92.5 -4.5 0 93 -4.5 0
93.5 -4.5 0 94 -4.5 0 94.5 -4.5 0
95 -4.5 0 95.5 -4.5 0 96 -4.5 0
96.5 -4.5 0 97 -4.5 0 97.5 -4.5 0
98 -4.5 0 98.5 -4.5 0 99 -4.5 0
99.5 -4.5 0 100 -4.5 0 100.5 -4.5 0
101 -4.5 0 101.5 -4.5 0 102 -4.5 0
102.5 -4.5 0 103 -4.5 0 103.5 -4.5 0
104 -4.5 0 104.5 -4.5 0 105 -4.5 0
105.5 -4.5 0 106 -4.5 0 106.5 -4.5 0
107 -4.5 0 107.5 -4.5 0 108 -4.5 0
108.5 -4.5 0 109 -4.5 0 109.5 -4.5 0
110 -4.5 0 110.5 -4.5 0 111 -4.5 0
111.5 -4.5 0 112 -4.5 0 112.5 -4.5 0
113 -4.5 0 113.5 -4.5 0 114 -4.5 0
114.5 -4.5 0 115 -4.5 0 115.5 -4.5 0
116 -4.5 0 116.5 -4.5 0 117 -4.5 0
117.5 -4.5 0 118 -4.5 0 118.5 -4.5 0
119 -4.5 0 119.5 -4.5 0 120 -4.5 0
120.5 -4.5 0 121 -4.5 0 121.5 -4.5 0
122 -4.5 0 122.5 -4.5 0 123 -4.5 0
123.5 -4.5 0 124 -4.5 0 124.5 -4.5 0
125 -4.5 0 125.5 -4.5 0 126 -4.5 0
126.5 -4.5 0 127 -4.5 0 127.5 -4.5 0
128 -4.5 0 128.5 -4.5 0 129 -4.5 0
129.5 -4.5 0 130 -4.5 0 130.5 -4.5 0
131 -4.5 0 131.5 -4.5 0 132 -4.5 0
132.5 -4.5 0 133 -4.5 0 133.5 -4.5 0
134 -4.5 0 134.5 -4.5 0 135 -4.5 0
135.5 -4.5 0 136 -4.5 0 136.5 -4.5 0
137 -4.5 0 137.5 -4.5 0 138 -4.5 0
138.5 -4.5 0 139 -4.5 0 139.5 -4.5 0
140 -4.5 0 140.5 -4.5 0 141 -4.5 0
141.5 -4.5 0 142 -4.5 0 142.5 -4.5 0
143 -4.5 0 143.5 -4.5 0 144 -4.5 0
144.5 -4.5 0 145 -4.5 0 145.5 -4.5 0
146 -4.5 0 146.5 -4.5 0 147 -4.5 0
147.5 -4.5 0 148 -4.5 0 148.5 -4.5 0
149 -4.5 0 149.5 -4.5 0 150 -4.5 0
150.5 -4.5 0 151 -4.5 0 151.5 -4.5 0
152 -4.5 0 152.5 -4.5 0 153 -4.5 0
153.5 -4.5 0 154 -4.5 0 154.5 -4.5 0
155 -4.5 0 155.5 -4.5 0 156 -4.5 0
156.5 -4.5 0 157 -4.5 0 157.5 -4.5 0
158 -4.5 0 158.5 -4.5 0 159 -4.5 0
159.5 -4.5 0 160 -4.5 0 160.5 -4.5 0
161 -4.5 0 161.5 -4.5 0 162 -4.5 0
162.5 -4.5 0 163 -4.5 0 163.5 -4.5 0
164 -4.5 0 164.5 -4.5 0 165 -4.5 0
165.5 -4.5 0 166 -4.5 0 166.5 -4.5 0
167 -4.5 0 167.5 -4.5 0 168 -4.5 0
168.5 -4.5 0 169 -4.5 0 169.5 -4.5 0
170 -4.5 0 170.5 -4.5 0 171 -4.5 0
171.5 -4.5 0 172 -4.5 0 172.5 -4.5 0
173 -4.5 0 173.5 -4.5 0 174 -4.5 0
174.5 -4.5 0 175 -4.5 0 175.5 -4.5 0
176 -4.5 0 176.5 -4.5 0 177 -4.5 0
177.5 -4.5 0 178 -4.5 0 178.5 -4.5 0
179 -4.5 0 179.5 -4.5 0 180 -4.5 0
180.5 -4.5 0 181 -4.5 0 181.5 -4.5 0
182 -4.5 0 182.5 -4.5 0 183 -4.5 0
183.5 -4.5 0 184 -4.5 0 184.5 -4.5 0
185 -4.5 0 185.5 -4.5 0 186 -4.5 0
186.5 -4.5 0 187 -4.5 0 187.5 -4.5 0
188 -4.5 0 188.5 -4.5 0 189 -4.5 0
189.5 -4.5 0 190 -4.5 0 190.5 -4.5 0
191 -4.5 0 191.5 -4.5 0 192 -4.5 0
192.5 -4.5 0 193 -4.5 0 193.5 -4.5 0
194 -4.5 0 194.5 -4.5 0 195 -4.5 0
195.5 -4.5 0 196 -4.5 0 196.5 -4.5 0
197 -4.5 0 197.5 -4.5 0 198 -4.5 0
198.5 -4.5 0 199 -4.5 0 199.5 -4.5 0
200 -4.5 0 0 -4 0 0.5 -4 0
1 -4 0 1.5 -4 0 2 -4 0
2.5 -4 0 3 -4 0 3.5 -4 0
4 -4 0 4.5 -4 0 5 -4 0
5.5 -4 0 6 -4 0 6.5 -4 0
7 -4 0 7.5 -4 0 8 -4 0
8.5 -4 0 9 -4 0 9.5 -4 0
10 -4 0 10.5 -4 0 11 -4 0
11.5 -4 0 12 -4 0 12.5 -4 0
13 -4 0 13.5 -4 0 14 -4 0
14.5 -4 0 15 -4 0 15.5 -4 0
16 -4 0 16.5 -4 0 17 -4 0
17.5 -4 0 18 -4 0 18.5 -4 0
19 -4 0 19.5 -4 0 20 -4 0
20.5 -4 0 21 -4 0 21.5 -4 0
22 -4 0 22.5 -4 0 23 -4 0
23.5 -4 0 24 -4 0 24.5 -4 0
25 -4 0 25.5 -4 0 26 -4 0
26.5 -4 0 27 -4 0 27.5 -4 0
28 -4 0 28.5 -4 0 29 -4 0
29.5 -4 0 30 -4 0 30.5 -4 0
31 -4 0 31.5 -4 0 32 -4 0
32.5 -4 0 33 -4 0 33.5 -4 0
34 -4 0 34.5 -4 0 35 -4 0
35.5 -4 0 36 -4 0 36.5 -4 0
37 -4 0 37.5 -4 0 38 -4 0
38.5 -4 0 39 -4 0 39.5 -4 0
40 -4 0 40.5 -4 0 41 -4 0
41.5 -4 0 42 -4 0 42.5 -4 0
43 -4 0 43.5 -4 0 44 -4 0
44.5 -4 0 45 -4 0 45.5 -4 0
46 -4 0 46.5 -4 0 47 -4 0
47.5 -4 0 48 -4 0 48.5 -4 0
49 -4 0 49.5 -4 0 50 -4 0
50.5 -4 0 51 -4 0 51.5 -4 0
52 -4 0 52.5 -4 0 53 -4 0
53.5 -4 0 54 -4 0 54.5 -4 0
55 -4 0 55.5 -4 0 56 -4 0
56.5 -4 0 57 -4 0 57.5 -4 0
58 -4 0 58.5 -4 0 59 -4 0
59.5 -4 0 60 -4 0 60.5 -4 0
61 -4 0 61.5 -4 0 62 -4 0
62.5 -4 0 63 -4 0 63.5 -4 0
64 -4 0 64.5 -4 0 65 -4 0
65.5 -4 0 66 -4 0 66.5 -4 0
67 -4 0 67.5 -4 0 68 -4 0
68.5 -4 0 69 -4 0 69.5 -4 0
70 -4 0 70.5 -4 0 71 -4 0
71.5 -4 0 72 -4 0 72.5 -4 0
73 -4 0 73.5 -4 0 74 -4 0
74.5 -4 0 75 -4 0 75.5 -4 0
76 -4 0 76.5 -4 0 77 -4 0
77.5 -4 0 78 -4 0 78.5 -4 0
79 -4 0 79.5 -4 0 80 -4 0
80.5 -4 0 81 -4 0 81.5 -4 0
82 -4 0 82.5 -4 0 83 -4 0
[...]
POINT_DATA 8421
VECTORS Velocity double
0 0 0 0 0 0 0 0 0
0 0 0 0 0 0 0 0 0
0 0 0 0 0 0 0 0 0
0 0 0 0 0 0 0 0 0
0 0 0 0 0 0 0 0 0
0 0 0 0 0 0 0 0 0
0 0 0 0 0 0 0 0 0
0 0 0 0 0 0 0 0 0
0 0 0 0 0 0 0 0 0
0 0 0 0 0 0 0 0 0
0 0 0 0 0 0 0 0 0
0 0 0 0 0 0 0 0 0
0 0 0 0 0 0 0 0 0
0 0 0 0 0 0 0 0 0
0 0 0 0 0 0 0 0 0
0 0 0 0 0 0 0 0 0
0 0 0 0 0 0 0 0 0
0 0 0 0 0 0 0 0 0
0 0 0 0 0 0 0 0 0
0 0 0 0 0 0 0 0 0
0 0 0 0 0 0 0 0 0
0 0 0 0 0 0 0 0 0
0 0 0 0 0 0 0 0 0
0 0 0 0 0 0 0 0 0
0 0 0 0 0 0 0 0 0
0 0 0 0 0 0 0 0 0
0 0 0 0 0 0 0 0 0
0 0 0 0 0 0 0 0 0
0 0 0 0 0 0 0 0 0
0 0 0 0 0 0 0 0 0
0 0 0 0 0 0 0 0 0
0 0 0 0 0 0 0 0 0
0 0 0 0 0 0 0 0 0
0 0 0 0 0 0 0 0 0
0 0 0 0 0 0 0 0 0
0 0 0 0 0 0 0 0 0
0 0 0 0 0 0 0 0 0
0 0 0 0 0 0 0 0 0
0 0 0 0 0 0 0 0 0
0 0 0 0 0 0 0 0 0
0 0 0 0 0 0 0 0 0
0 0 0 0 0 0 0 0 0
0 0 0 0 0 0 0 0 0
0 0 0 0 0 0 0 0 0
0 0 0 0 0 0 0 0 0
0 0 0 0 0 0 0 0 0
0 0 0 0 0 0 0 0 0
0 0 0 0 0 0 0 0 0
0 0 0 0 0 0 0 0 0
0 0 0 0 0 0 0 0 0
0 0 0 0 0 0 0 0 0
0 0 0 0 0 0 0 0 0
0 0 0 0 0 0 0 0 0
0 0 0 0 0 0 0 0 0
0 0 0 0 0 0 0 0 0
0 0 0 0 0 0 0 0 0
0 0 0 0 0 0 0 0 0
0 0 0 0 0 0 0 0 0
0 0 0 0 0 0 0 0 0
0 0 0 0 0 0 0 0 0
0 0 0 0 0 0 0 0 0
0 0 0 0 0 0 0 0 0
0 0 0 0 0 0 0 0 0
0 0 0 0 0 0 0 0 0
0 0 0 0 0 0 0 0 0
0 0 0 0 0 0 0 0 0
0 0 0 0 0 0 0 0 0
0 0 0 0 0 0 0 0 0
0 0 0 0 0 0 0 0 0
0 0 0 0 0 0 0 0 0
0 0 0 0 0 0 0 0 0
0 0 0 0 0 0 0 0 0
0 0 0 0 0 0 0 0 0
0 0 0 0 0 0 0 0 0
0 0 0 0 0 0 0 0 0
0 0 0 0 0 0 0 0 0
0 0 0 0 0 0 0 0 0
0 0 0 0 0 0 0 0 0
0 0 0 0 0 0 0 0 0
0 0 0 0 0 0 0 0 0
0 0 0 0 0 0 0 0 0
0 0 0 0 0 0 0 0 0
0 0 0 0 0 0 0 0 0
0 0 0 0 0 0 0 0 0
0 0 0 0 0 0 0 0 0
0 0 0 0 0 0 0 0 0
0 0 0 0 0 0 0 0 0
0 0 0 0 0 0 0 0 0
0 0 0 0 0 0 0 0 0
0 0 0 0 0 0 0 0 0
0 0 0 0 0 0 0 0 0
0 0 0 0 0 0 0 0 0
0 0 0 0 0 0 0 0 0
0 0 0 0 0 0 0 0 0
0 0 0 0 0 0 0 0 0
0 0 0 0 0 0 0 0 0
0 0 0 0 0 0 0 0 0
0 0 0 0 0 0 0 0 0
0 0 0 0 0 0 0 0 0
0 0 0 0 0 0 0 0 0
0 0 0 0 0 0 0 0 0
0 0 0 0 0 0 0 0 0
0 0 0 0 0 0 0 0 0
0 0 0 0 0 0 0 0 0
0 0 0 0 0 0 0 0 0
0 0 0 0 0 0 0 0 0
0 0 0 0 0 0 0 0 0
0 0 0 0 0 0 0 0 0
0 0 0 0 0 0 0 0 0
0 0 0 0 0 0 0 0 0
0 0 0 0 0 0 0 0 0
0 0 0 0 0 0 0 0 0
0 0 0 0 0 0 0 0 0
0 0 0 0 0 0 0 0 0
0 0 0 0 0 0 0 0 0
0 0 0 0 0 0 0 0 0
0 0 0 0 0 0 0 0 0
0 0 0 0 0 0 0 0 0
0 0 0 0 0 0 0 0 0
0 0 0 0 0 0 0 0 0
0 0 0 0 0 0 0 0 0
0 0 0 0 0 0 0 0 0
0 0 0 0 0 0 0 0 0
0 0 0 0 0 0 0 0 0
0 0 0 0 0 0 0 0 0
0 0 0 0 0 0 0 0 0
0 0 0 0 0 0 0 0 0
0 0 0 0 0 0 0 0 0
0 0 0 0 0 0 0 0 0
0 0 0 0 0 0 0 0 0
0 0 0 0 0 0 0 0 0
0 0 0 0 0 0 0 0 0
0 0 0 0 0 0 0 0 0
0 0 0 0 0 0 0.295733 0 0
0.296112 0.00437756 0 0.290717 0.00550175 0 0.283633 0.00550918 0
0.276522 0.00510267 0 0.269986 0.0045478 0 0.264227 0.00395893 0
0.259277 0.00338951 0 0.255097 0.00286489 0 0.251614 0.00239599 0
0.248743 0.00198583 0 0.246399 0.00163298 0 0.244501 0.00133353 0
0.242976 0.00108235 0 0.241759 0.000873785 0 0.240794 0.000702211 0
0.240032 0.000562255 0 0.239433 0.000448988 0 0.238964 0.000357998 0
0.238598 0.000285417 0 0.238312 0.000227905 0 0.238088 0.000182622 0
0.237913 0.000147181 0 0.237774 0.000119595 0 0.237664 9.82318e-005 0
0.237575 8.17568e-005 0 0.237501 6.9093e-005 0 0.237439 5.93771e-005 0
0.237387 5.1923e-005 0 0.237341 4.61904e-005 0 0.2373 4.17571e-005 0
0.237262 3.82966e-005 0 0.237228 3.55585e-005 0 0.237196 3.33526e-005 0
0.237166 3.15364e-005 0 0.237137 3.0004e-005 0 0.23711 2.86776e-005 0
0.237085 2.75014e-005 0 0.23706 2.64357e-005 0 0.237037 2.54528e-005 0
0.237015 2.4534e-005 0 0.236993 2.36667e-005 0 0.236973 2.28431e-005 0
0.236954 2.20584e-005 0 0.236936 2.13098e-005 0 0.23692 2.05957e-005 0
0.236904 1.99156e-005 0 0.236889 1.9269e-005 0 0.236874 1.86557e-005 0
0.236861 1.80757e-005 0 0.236849 1.75285e-005 0 0.236837 1.70137e-005 0
0.236826 1.65308e-005 0 0.236816 1.60788e-005 0 0.236806 1.56568e-005 0
0.236798 1.52639e-005 0 0.236789 1.48987e-005 0 0.236782 1.45601e-005 0
0.236775 1.42467e-005 0 0.236768 1.39572e-005 0 0.236762 1.36902e-005 0
0.236756 1.34446e-005 0 0.236751 1.32188e-005 0 0.236746 1.30118e-005 0
0.236741 1.28222e-005 0 0.236737 1.26489e-005 0 0.236733 1.24908e-005 0
0.236729 1.23468e-005 0 0.236726 1.22159e-005 0 0.236723 1.20972e-005 0
0.23672 1.19897e-005 0 0.236717 1.18928e-005 0 0.236715 1.18055e-005 0
0.236713 1.17273e-005 0 0.236711 1.16573e-005 0 0.236709 1.1595e-005 0
0.236707 1.15399e-005 0 0.236706 1.14913e-005 0 0.236704 1.14487e-005 0
0.236703 1.14118e-005 0 0.236702 1.13801e-005 0 0.236701 1.13531e-005 0
0.2367 1.13306e-005 0 0.236699 1.13121e-005 0 0.236699 1.12974e-005 0
0.236698 1.12861e-005 0 0.236698 1.1278e-005 0 0.236698 1.12729e-005 0
0.236697 1.12704e-005 0 0.236697 1.12703e-005 0 0.236697 1.12725e-005 0
0.236697 1.12768e-005 0 0.236697 1.1283e-005 0 0.236697 1.12908e-005 0
0.236697 1.13003e-005 0 0.236697 1.13111e-005 0 0.236698 1.13232e-005 0
0.236698 1.13365e-005 0 0.236698 1.13508e-005 0 0.236699 1.1366e-005 0
0.236699 1.13821e-005 0 0.2367 1.13989e-005 0 0.2367 1.14164e-005 0
0.236701 1.14344e-005 0 0.236701 1.14529e-005 0 0.236702 1.14718e-005 0
0.236703 1.14911e-005 0 0.236703 1.15107e-005 0 0.236704 1.15305e-005 0
0.236705 1.15505e-005 0 0.236706 1.15707e-005 0 0.236706 1.15909e-005 0
0.236707 1.16113e-005 0 0.236708 1.16316e-005 0 0.236709 1.1652e-005 0
0.23671 1.16724e-005 0 0.236711 1.16928e-005 0 0.236712 1.17131e-005 0
0.236713 1.17333e-005 0 0.236714 1.17535e-005 0 0.236715 1.17736e-005 0
0.236715 1.17937e-005 0 0.236716 1.18137e-005 0 0.236718 1.18336e-005 0
0.236719 1.18535e-005 0 0.23672 1.18734e-005 0 0.236721 1.18933e-005 0
0.236722 1.19132e-005 0 0.236723 1.19331e-005 0 0.236724 1.19531e-005 0
0.236725 1.19732e-005 0 0.236726 1.19934e-005 0 0.236727 1.20138e-005 0
0.236728 1.20343e-005 0 0.236729 1.2055e-005 0 0.236731 1.2076e-005 0
0.236732 1.20973e-005 0 0.236733 1.21188e-005 0 0.236734 1.21408e-005 0
0.236735 1.21631e-005 0 0.236737 1.21858e-005 0 0.236738 1.2209e-005 0
0.236739 1.22327e-005 0 0.23674 1.22569e-005 0 0.236742 1.22817e-005 0
0.236743 1.23071e-005 0 0.236744 1.23331e-005 0 0.236745 1.23598e-005 0
0.236747 1.23871e-005 0 0.236748 1.24152e-005 0 0.236749 1.24441e-005 0
0.236751 1.24737e-005 0 0.236752 1.25042e-005 0 0.236753 1.25355e-005 0
0.236755 1.25678e-005 0 0.236756 1.26009e-005 0 0.236757 1.26349e-005 0
0.236759 1.267e-005 0 0.23676 1.2706e-005 0 0.236761 1.2743e-005 0
0.236763 1.27811e-005 0 0.236764 1.28202e-005 0 0.236766 1.28603e-005 0
0.236767 1.29015e-005 0 0.236769 1.29437e-005 0 0.23677 1.29868e-005 0
0.236772 1.3031e-005 0 0.236773 1.30761e-005 0 0.236774 1.31222e-005 0
0.236776 1.31693e-005 0 0.236778 1.32173e-005 0 0.236779 1.32662e-005 0
0.236781 1.33161e-005 0 0.236782 1.3367e-005 0 0.236784 1.3419e-005 0
0.236785 1.3472e-005 0 0.236787 1.35261e-005 0 0.236788 1.35814e-005 0
0.23679 1.36377e-005 0 0.236792 1.36951e-005 0 0.236793 1.37536e-005 0
0.236795 1.38129e-005 0 0.236797 1.38731e-005 0 0.236798 1.39337e-005 0
0.2368 1.39947e-005 0 0.236801 1.40556e-005 0 0.236803 1.41164e-005 0
0.236805 1.41765e-005 0 0.236807 1.42358e-005 0 0.236808 1.42939e-005 0
0.23681 1.43507e-005 0 0.236812 1.44061e-005 0 0.236813 1.44599e-005 0
0.236815 1.45122e-005 0 0.236817 1.45632e-005 0 0.236819 1.4613e-005 0
0.23682 1.46619e-005 0 0.236822 1.47104e-005 0 0.236824 1.47588e-005 0
0.236826 1.48075e-005 0 0.236827 1.48571e-005 0 0.236829 1.49079e-005 0
0.236831 1.49603e-005 0 0.236833 1.50146e-005 0 0.236835 1.5071e-005 0
0.236836 1.51297e-005 0 0.236838 1.51906e-005 0 0.23684 1.52535e-005 0
0.236842 1.53183e-005 0 0.236844 1.53846e-005 0 0.236845 1.54521e-005 0
0.236847 1.55201e-005 0 0.236849 1.55883e-005 0 0.236851 1.56561e-005 0
0.236853 1.5723e-005 0 0.236855 1.57885e-005 0 0.236856 1.58521e-005 0
0.236858 1.59136e-005 0 0.23686 1.59727e-005 0 0.236862 1.60293e-005 0
0.236864 1.60832e-005 0 0.236866 1.61346e-005 0 0.236868 1.61836e-005 0
0.236869 1.62304e-005 0 0.236871 1.62753e-005 0 0.236873 1.63187e-005 0
0.236875 1.6361e-005 0 0.236877 1.64026e-005 0 0.236879 1.64438e-005 0
0.236881 1.64852e-005 0 0.236883 1.65271e-005 0 0.236884 1.65698e-005 0
0.236886 1.66135e-005 0 0.236888 1.66585e-005 0 0.23689 1.6705e-005 0
0.236892 1.67528e-005 0 0.236894 1.6802e-005 0 0.236896 1.68525e-005 0
0.236898 1.69041e-005 0 0.2369 1.69565e-005 0 0.236902 1.70094e-005 0
0.236904 1.70625e-005 0 0.236905 1.71155e-005 0 0.236907 1.71682e-005 0
0.236909 1.72201e-005 0 0.236911 1.72711e-005 0 0.236913 1.7321e-005 0
0.236915 1.73696e-005 0 0.236917 1.74169e-005 0 0.236919 1.74627e-005 0
0.236921 1.75071e-005 0 0.236923 1.755e-005 0 0.236925 1.75917e-005 0
0.236927 1.76323e-005 0 0.236928 1.76717e-005 0 0.23693 1.77103e-005 0
0.236932 1.77482e-005 0 0.236934 1.77856e-005 0 0.236936 1.78226e-005 0
0.236938 1.78594e-005 0 0.23694 1.78962e-005 0 0.236942 1.79332e-005 0
0.236944 1.79704e-005 0 0.236946 1.8008e-005 0 0.236948 1.80461e-005 0
0.23695 1.80848e-005 0 0.236951 1.81242e-005 0 0.236953 1.81644e-005 0
0.236955 1.82054e-005 0 0.236957 1.82473e-005 0 0.236959 1.82902e-005 0
0.236961 1.8334e-005 0 0.236963 1.8379e-005 0 0.236965 1.8425e-005 0
0.236967 1.84722e-005 0 0.236969 1.85207e-005 0 0.236971 1.85704e-005 0
0.236973 1.86215e-005 0 0.236975 1.86741e-005 0 0.236977 1.87281e-005 0
0.236979 1.87838e-005 0 0.236981 1.8841e-005 0 0.236983 1.88999e-005 0
0.236985 1.89605e-005 0 0.236987 1.90228e-005 0 0.236989 1.90868e-005 0
0.236991 1.91524e-005 0 0.236993 1.92195e-005 0 0.236995 1.92882e-005 0
0.236997 1.93583e-005 0 0.236999 1.94296e-005 0 0.237001 1.95022e-005 0
0.237003 1.95759e-005 0 0.237005 1.96506e-005 0 0.237007 1.97262e-005 0
0.23701 1.98026e-005 0 0.237012 1.98797e-005 0 0.237014 1.99575e-005 0
0.237016 2.00358e-005 0 0.237018 2.01146e-005 0 0.23702 2.01938e-005 0
0.237022 2.02734e-005 0 0.237025 2.03531e-005 0 0.237027 2.0433e-005 0
0.237029 2.0513e-005 0 0.237031 2.05928e-005 0 0.237033 2.06725e-005 0
0.237036 2.07519e-005 0 0.237038 2.0831e-005 0 0.23704 2.09097e-005 0
0.237042 2.09878e-005 0 0.237044 2.10655e-005 0 0.237047 2.11425e-005 0
0.237049 2.12188e-005 0 0.237051 2.12944e-005 0 0.237053 2.13693e-005 0
0.237056 2.14433e-005 0 0.237058 2.15165e-005 0 0.23706 2.15888e-005 0
0.237062 2.16602e-005 0 0.237065 2.17306e-005 0 0.237067 2.17999e-005 0
0.237069 2.18682e-005 0 0.237071 2.19355e-005 0 0.237074 2.20017e-005 0
0.237076 2.20669e-005 0 0.237078 2.2131e-005 0 0.237081 2.21942e-005 0
0.237083 2.22564e-005 0 0.237085 2.23178e-005 0 0.237087 2.23783e-005 0
0.23709 2.2438e-005 0 0.237092 2.24969e-005 0 0.237094 2.25551e-005 0
0.237096 2.26126e-005 0 0.237099 2.26694e-005 0 0.237101 2.27255e-005 0
0.237103 2.27809e-005 0 0.237106 2.28358e-005 0 0.237108 2.289e-005 0
0.23711 2.29437e-005 0 0.237112 2.29971e-005 0 0.237115 2.30501e-005 0
0.237117 2.31031e-005 0 0.237119 2.31561e-005 0 0.237122 2.32094e-005 0
0.237124 2.32631e-005 0 0.237126 2.33175e-005 0 0.237128 2.33728e-005 0
0.237131 2.3429e-005 0 0.237133 2.34864e-005 0 0.237135 2.3545e-005 0
0.237138 2.36049e-005 0 0.23714 2.3666e-005 0 0.237142 2.37285e-005 0
0.237144 2.37921e-005 0 0.237147 2.38568e-005 0 0.237149 2.39225e-005 0
0.237151 2.39892e-005 0 0.237154 2.40566e-005 0 0.237156 2.41247e-005 0
0.237158 2.41936e-005 0 0.237161 2.42633e-005 0 0.237163 2.43338e-005 0
0.237165 2.44055e-005 0 0.237168 2.44784e-005 0 0.23717 2.45529e-005 0
0.237173 2.46294e-005 0 0.237175 2.47082e-005 0 0.237177 2.47896e-005 0
0.23718 2.48738e-005 0 0.237182 2.49612e-005 0 0.237185 2.50517e-005 0
0.237187 2.51453e-005 0 0.23719 2.52421e-005 0 0.237192 2.53417e-005 0
0.237194 2.54439e-005 0 0.237197 2.55485e-005 0 0.237199 2.56552e-005 0
0.237202 2.57638e-005 0 0.237204 2.58742e-005 0 0.237207 2.59864e-005 0
0.23721 2.61004e-005 0 0.237212 2.62163e-005 0 0.237215 2.63338e-005 0
0.237217 2.64525e-005 0 0.23722 2.65714e-005 0 0.237223 2.66887e-005 0
0.237225 2.68014e-005 0 0.237228 2.69056e-005 0 0.237231 2.69963e-005 0
0.237234 2.70673e-005 0 0.237237 2.71117e-005 0 0.23724 2.71211e-005 0
0.237243 2.70847e-005 0 0.237246 2.69865e-005 0 0.23725 2.67997e-005 0
0.237253 2.6475e-005 0 0.237258 2.59169e-005 0 0.237263 2.49329e-005 0
0.237269 2.33999e-005 0 0.374203 0 0 0.374242 0.0017557 0
0.374604 0.00413171 0 0.374241 0.00488635 0 0.373227 0.00493435 0
0.371797 0.00466072 0 0.370148 0.0042444 0 0.368417 0.00377615 0
0.366694 0.00330462 0 0.365037 0.00285622 0 0.363482 0.00244469 0
0.362046 0.00207618 0 0.360738 0.00175221 0 0.359558 0.00147149 0
0.358501 0.0012311 0 0.357559 0.00102727 0 0.356723 0.000855862 0
0.355984 0.000712753 0 0.355332 0.000593995 0 0.354756 0.000495955 0
0.354249 0.000415365 0 0.353802 0.000349349 0 0.353408 0.000295411 0
0.353059 0.000251414 0 0.352751 0.000215552 0 0.352477 0.000186309 0
0.352234 0.000162427 0 0.352017 0.000142869 0 0.351823 0.000126788 0
0.351649 0.000113493 0 0.351493 0.000102429 0 0.351352 9.3147e-005 0
0.351225 8.52909e-005 0 0.351109 7.85768e-005 0 0.351004 7.27802e-005 0
0.350908 6.77241e-005 0 0.350821 6.32697e-005 0 0.350741 5.9308e-005 0
0.350668 5.5754e-005 0 0.350601 5.25412e-005 0 0.350539 4.96174e-005 0
0.350482 4.69418e-005 0 0.350429 4.44821e-005 0 0.350381 4.22127e-005 0
0.350336 4.0113e-005 0 0.350294 3.81661e-005 0 0.350256 3.63583e-005 0
0.350221 3.46778e-005 0 0.350188 3.31148e-005 0 0.350157 3.16604e-005 0
0.350129 3.03071e-005 0 0.350103 2.90478e-005 0 0.350079 2.78763e-005 0
0.350056 2.67867e-005 0 0.350036 2.57737e-005 0 0.350016 2.48323e-005 0
0.349999 2.39576e-005 0 0.349982 2.31454e-005 0 0.349967 2.23914e-005 0
0.349953 2.16917e-005 0 0.34994 2.10427e-005 0 0.349928 2.04409e-005 0
0.349917 1.98831e-005 0 0.349907 1.93662e-005 0 0.349898 1.88874e-005 0
0.349889 1.84441e-005 0 0.349881 1.80337e-005 0 0.349874 1.76539e-005 0
0.349867 1.73026e-005 0 0.349862 1.69778e-005 0 0.349856 1.66776e-005 0
0.349851 1.64002e-005 0 0.349847 1.61441e-005 0 0.349843 1.59077e-005 0
0.349839 1.56897e-005 0 0.349836 1.54887e-005 0 0.349834 1.53036e-005 0
0.349831 1.51332e-005 0 0.349829 1.49766e-005 0 0.349828 1.48327e-005 0
0.349826 1.47006e-005 0 0.349825 1.45795e-005 0 0.349824 1.44688e-005 0
0.349824 1.43675e-005 0 0.349823 1.42752e-005 0 0.349823 1.41911e-005 0
0.349823 1.41147e-005 0 0.349824 1.40455e-005 0 0.349824 1.3983e-005 0
0.349825 1.39266e-005 0 0.349826 1.3876e-005 0 0.349827 1.38308e-005 0
0.349828 1.37905e-005 0 0.349829 1.37549e-005 0 0.34983 1.37236e-005 0
0.349832 1.36963e-005 0 0.349833 1.36728e-005 0 0.349835 1.36527e-005 0
0.349837 1.36358e-005 0 0.349839 1.36219e-005 0 0.349841 1.36107e-005 0
0.349843 1.36022e-005 0 0.349846 1.35959e-005 0 0.349848 1.35919e-005 0
0.34985 1.35899e-005 0 0.349853 1.35898e-005 0 0.349855 1.35914e-005 0
0.349858 1.35946e-005 0 0.349861 1.35992e-005 0 0.349864 1.36053e-005 0
0.349866 1.36125e-005 0 0.349869 1.36209e-005 0 0.349872 1.36304e-005 0
0.349875 1.36408e-005 0 0.349878 1.36521e-005 0 0.349881 1.36642e-005 0
0.349885 1.36771e-005 0 0.349888 1.36907e-005 0 0.349891 1.37049e-005 0
0.349894 1.37197e-005 0 0.349898 1.37351e-005 0 0.349901 1.37509e-005 0
0.349904 1.37673e-005 0 0.349908 1.37841e-005 0 0.349911 1.38014e-005 0
0.349915 1.38191e-005 0 0.349918 1.38373e-005 0 0.349922 1.38558e-005 0
0.349925 1.38748e-005 0 0.349929 1.38942e-005 0 0.349933 1.39139e-005 0
0.349936 1.39341e-005 0 0.34994 1.39548e-005 0 0.349944 1.39758e-005 0
0.349947 1.39973e-005 0 0.349951 1.40193e-005 0 0.349955 1.40418e-005 0
0.349959 1.40648e-005 0 0.349963 1.40882e-005 0 0.349967 1.41123e-005 0
0.34997 1.41369e-005 0 0.349974 1.4162e-005 0 0.349978 1.41878e-005 0
0.349982 1.42142e-005 0 0.349986 1.42413e-005 0 0.34999 1.42691e-005 0
0.349994 1.42975e-005 0 0.349998 1.43267e-005 0 0.350002 1.43566e-005 0
0.350006 1.43873e-005 0 0.350011 1.44188e-005 0 0.350015 1.44512e-005 0
0.350019 1.44843e-005 0 0.350023 1.45184e-005 0 0.350027 1.45533e-005 0
0.350031 1.45891e-005 0 0.350036 1.46259e-005 0 0.35004 1.46636e-005 0
0.350044 1.47023e-005 0 0.350048 1.4742e-005 0 0.350053 1.47827e-005 0
0.350057 1.48244e-005 0 0.350061 1.48671e-005 0 0.350066 1.49108e-005 0
0.35007 1.49555e-005 0 0.350075 1.50013e-005 0 0.350079 1.5048e-005 0
0.350084 1.50958e-005 0 0.350088 1.51445e-005 0 0.350093 1.51942e-005 0
0.350097 1.52449e-005 0 0.350102 1.52966e-005 0 0.350106 1.53493e-005 0
0.350111 1.54029e-005 0 0.350115 1.54576e-005 0 0.35012 1.55132e-005 0
0.350125 1.55698e-005 0 0.350129 1.56274e-005 0 0.350134 1.5686e-005 0
0.350139 1.57454e-005 0 0.350144 1.58056e-005 0 0.350148 1.58666e-005 0
0.350153 1.59283e-005 0 0.350158 1.59904e-005 0 0.350163 1.60529e-005 0
0.350168 1.61156e-005 0 0.350173 1.61783e-005 0 0.350178 1.62409e-005 0
0.350183 1.63032e-005 0 0.350187 1.63651e-005 0 0.350192 1.64265e-005 0
0.350197 1.64874e-005 0 0.350202 1.65476e-005 0 0.350207 1.66073e-005 0
0.350213 1.66665e-005 0 0.350218 1.67253e-005 0 0.350223 1.67838e-005 0
0.350228 1.68422e-005 0 0.350233 1.69007e-005 0 0.350238 1.69595e-005 0
0.350243 1.70187e-005 0 0.350248 1.70785e-005 0 0.350254 1.71391e-005 0
0.350259 1.72005e-005 0 0.350264 1.72629e-005 0 0.350269 1.73261e-005 0
0.350275 1.73902e-005 0 0.35028 1.74551e-005 0 0.350285 1.75206e-005 0
0.35029 1.75866e-005 0 0.350296 1.76529e-005 0 0.350301 1.77192e-005 0
0.350307 1.77854e-005 0 0.350312 1.78512e-005 0 0.350317 1.79164e-005 0
0.350323 1.79809e-005 0 0.350328 1.80445e-005 0 0.350334 1.81072e-005 0
0.350339 1.81688e-005 0 0.350344 1.82295e-005 0 0.35035 1.82891e-005 0
0.350355 1.83479e-005 0 0.350361 1.84058e-005 0 0.350366 1.84631e-005 0
0.350372 1.85199e-005 0 0.350378 1.85764e-005 0 0.350383 1.86327e-005 0
0.350389 1.8689e-005 0 0.350394 1.87454e-005 0 0.3504 1.88022e-005 0
0.350406 1.88593e-005 0 0.350411 1.8917e-005 0 0.350417 1.89752e-005 0
0.350423 1.9034e-005 0 0.350428 1.90933e-005 0 0.350434 1.91532e-005 0
0.35044 1.92134e-005 0 0.350445 1.92739e-005 0 0.350451 1.93346e-005 0
0.350457 1.93953e-005 0 0.350463 1.94558e-005 0 0.350468 1.95159e-005 0
0.350474 1.95755e-005 0 0.35048 1.96345e-005 0 0.350486 1.96927e-005 0
0.350492 1.97501e-005 0 0.350498 1.98065e-005 0 0.350503 1.98619e-005 0
0.350509 1.99163e-005 0 0.350515 1.99696e-005 0 0.350521 2.00221e-005 0
0.350527 2.00736e-005 0 0.350533 2.01242e-005 0 0.350539 2.01741e-005 0
0.350545 2.02233e-005 0 0.350551 2.0272e-005 0 0.350557 2.03203e-005 0
0.350563 2.03682e-005 0 0.350568 2.04159e-005 0 0.350574 2.04634e-005 0
0.35058 2.0511e-005 0 0.350586 2.05587e-005 0 0.350592 2.06066e-005 0
0.350599 2.06548e-005 0 0.350605 2.07034e-005 0 0.350611 2.07525e-005 0
0.350617 2.08021e-005 0 0.350623 2.08523e-005 0 0.350629 2.09031e-005 0
0.350635 2.09548e-005 0 0.350641 2.10072e-005 0 0.350647 2.10605e-005 0
0.350653 2.11148e-005 0 0.35066 2.117e-005 0 0.350666 2.12263e-005 0
0.350672 2.12837e-005 0 0.350678 2.13422e-005 0 0.350684 2.1402e-005 0
0.350691 2.14631e-005 0 0.350697 2.15255e-005 0 0.350703 2.15892e-005 0
0.350709 2.16544e-005 0 0.350716 2.1721e-005 0 0.350722 2.1789e-005 0
0.350728 2.18585e-005 0 0.350735 2.19294e-005 0 0.350741 2.20017e-005 0
0.350748 2.20754e-005 0 0.350754 2.21504e-005 0 0.350761 2.22267e-005 0
0.350767 2.23041e-005 0 0.350774 2.23828e-005 0 0.35078 2.24625e-005 0
0.350787 2.25432e-005 0 0.350793 2.26249e-005 0 0.3508 2.27075e-005 0
0.350807 2.27908e-005 0 0.350813 2.28749e-005 0 0.35082 2.29597e-005 0
0.350827 2.30451e-005 0 0.350833 2.3131e-005 0 0.35084 2.32173e-005 0
0.350847 2.3304e-005 0 0.350854 2.33909e-005 0 0.350861 2.34781e-005 0
0.350867 2.35653e-005 0 0.350874 2.36525e-005 0 0.350881 2.37397e-005 0
0.350888 2.38267e-005 0 0.350895 2.39135e-005 0 0.350902 2.4e-005 0
0.350909 2.40861e-005 0 0.350916 2.41719e-005 0 0.350923 2.42571e-005 0
0.35093 2.43419e-005 0 0.350937 2.44261e-005 0 0.350944 2.45096e-005 0
0.350951 2.45925e-005 0 0.350959 2.46747e-005 0 0.350966 2.47561e-005 0
0.350973 2.48367e-005 0 0.35098 2.49164e-005 0 0.350987 2.49953e-005 0
0.350994 2.50734e-005 0 0.351002 2.51505e-005 0 0.351009 2.52268e-005 0
0.351016 2.53022e-005 0 0.351024 2.53768e-005 0 0.351031 2.54506e-005 0
0.351038 2.55236e-005 0 0.351046 2.55959e-005 0 0.351053 2.56674e-005 0
0.35106 2.57383e-005 0 0.351068 2.58086e-005 0 0.351075 2.58782e-005 0
0.351083 2.59472e-005 0 0.35109 2.60156e-005 0 0.351098 2.60835e-005 0